REMARK SMILES CN1CCCn2c1cc(OCc1cc(F)c(Oc3ccc(C(F)(F)F)nc3)c(F)c1)nc2=O
REMARK SMILES IDX 12 1 30 2 28 3 16 4 14 5 13 6 15 7 29 8 11 9 10 10 9 11 2 12
REMARK SMILES IDX 3 13 7 14 4 15 6 16 8 17 5 18 32 19 31 20 33 21 1 22 17 23
REMARK SMILES IDX 18 24 27 25 19 26 26 27 20 28 21 29 22 30 23 31 24 32 25 33
REMARK H PARENT
ROOT
ATOM      1  C   UNL     1      -0.591  -1.588  -2.845  1.00  0.00    -0.005 A 
ATOM      2  C   UNL     1      -1.148  -2.606  -2.057  1.00  0.00    +0.050 A 
ATOM      3  C   UNL     1      -2.359  -2.399  -1.390  1.00  0.00    +0.169 A 
ATOM      4  C   UNL     1      -3.021  -1.168  -1.489  1.00  0.00    +0.198 A 
ATOM      5  C   UNL     1      -2.476  -0.154  -2.300  1.00  0.00    +0.169 A 
ATOM      6  C   UNL     1      -1.265  -0.364  -2.966  1.00  0.00    +0.050 A 
ATOM      7  F   UNL     1      -3.133   1.019  -2.477  1.00  0.00    -0.203 F 
ATOM      8  F   UNL     1      -2.884  -3.392  -0.629  1.00  0.00    -0.203 F 
ENDROOT
BRANCH   1   9
ATOM      9  C   UNL     1       0.727  -1.791  -3.542  1.00  0.00    +0.267 C 
BRANCH   9  10
ATOM     10  O   UNL     1       1.714  -0.910  -3.008  1.00  0.00    -0.473 OA
BRANCH  10  11
ATOM     11  C   UNL     1       2.250  -1.041  -1.722  1.00  0.00    +0.222 A 
ATOM     12  N   UNL     1       4.663   0.730   0.536  1.00  0.00    -0.361 N 
ATOM     13  C   UNL     1       5.202   0.602   1.895  1.00  0.00    +0.119 C 
ATOM     14  C   UNL     1       3.698  -0.233   0.033  1.00  0.00    +0.117 A 
ATOM     15  C   UNL     1       4.216  -0.113   2.807  1.00  0.00    +0.043 C 
ATOM     16  N   UNL     1       3.273  -1.272   0.831  1.00  0.00    -0.278 N 
ATOM     17  C   UNL     1       3.166  -0.103  -1.264  1.00  0.00    +0.113 A 
ATOM     18  C   UNL     1       3.826  -1.450   2.186  1.00  0.00    +0.131 C 
ATOM     19  C   UNL     1       2.389  -2.200   0.336  1.00  0.00    +0.352 A 
ATOM     20  N   UNL     1       1.889  -2.070  -0.918  1.00  0.00    -0.157 NA
ATOM     21  O   UNL     1       2.029  -3.187   1.033  1.00  0.00    -0.245 OA
ATOM     22  C   UNL     1       5.251   1.750  -0.341  1.00  0.00    +0.145 C 
ENDBRANCH  10  11
ENDBRANCH   9  10
ENDBRANCH   1   9
BRANCH   4  23
ATOM     23  O   UNL     1      -4.233  -0.996  -0.806  1.00  0.00    -0.450 OA
BRANCH  23  24
ATOM     24  C   UNL     1      -4.607   0.160  -0.106  1.00  0.00    +0.146 A 
ATOM     25  C   UNL     1      -3.662   1.046   0.439  1.00  0.00    +0.158 A 
ATOM     26  C   UNL     1      -5.965   0.420   0.097  1.00  0.00    +0.051 A 
ATOM     27  N   UNL     1      -4.073   2.146   1.125  1.00  0.00    -0.248 NA
ATOM     28  C   UNL     1      -6.364   1.557   0.802  1.00  0.00    +0.037 A 
ATOM     29  C   UNL     1      -5.392   2.427   1.314  1.00  0.00    +0.144 A 
BRANCH  29  30
ATOM     30  C   UNL     1      -5.798   3.651   2.081  1.00  0.00    +0.433 C 
ATOM     31  F   UNL     1      -6.487   3.277   3.220  1.00  0.00    -0.165 F 
ATOM     32  F   UNL     1      -6.615   4.444   1.295  1.00  0.00    -0.165 F 
ATOM     33  F   UNL     1      -4.685   4.385   2.451  1.00  0.00    -0.165 F 
ENDBRANCH  29  30
ENDBRANCH  23  24
ENDBRANCH   4  23
TORSDOF 6
